
OPTIMIZATION CYCLE 49
Fri Sep 10 14:41:29 CEST 2010
 operating system is UNIX !
 hostname is         hexa29

 rdgrad(hexa29) : TURBOMOLE V6.1 22 Sep 2009 at 17:26:03
 Copyright (C) 2009 TURBOMOLE GmbH, Karlsruhe


    2010-09-10 14:41:30.081 


 UHF modus switched on !


                                 r d g r a d

                          gradient for ridft program 

                        by K.Eichkorn, O.Treutler, H.Oehm, 
                             M.Haeser and R.Ahlrichs
                  (Chemical Physics Letters 242 (1995) 652-660)
                    parallel version: M.v.Arnim  &  R.Ahlrichs
                            quantum chemistry group
                             university  karlsruhe
                                   germany




                          References             
                                                 
          Density Functional:                              
              O. Treutler and R. Ahlrichs                      
              Efficient Molecular Numerical Integration Schemes
              J. chem. Phys. 102: 346 (1995)                   
          Parallel Version:                                
              Performance of parallel TURBOMOLE for Density    
              Functional Calculations                          
              M. v.Arnim and R. Ahlrichs                      
              J. comp. Chem. 19: 1746 (1998)                   
          RI-J Method:                                     
              Auxiliary Basis Sets to approximate Coulomb      
              Potentials                                       
              Chem. Phys. Lett. 240: 283 (1995)                
              K. Eichkorn, O. Treutler, H. Oehm, M. Haeser     
              and R. Ahlrichs                                  
              Chem. Phys. Lett. 242: 652 (1995)                
                                                           
              Auxiliary Basis Sets for Main Row Atoms and their
              Use to approximate Coulomb Potentials            
              K. Eichkorn, F. Weigend, O. Treutler and         
              R. Ahlrichs                                      
              Theo. Chem. Acc. 97: 119 (1997)                   
                                         



 W A R N I N G : BASIS SET NICKNAME none DOES NOT CONTAIN ATOMIC SYMBOL mg !


  WARNING : no basis functions have been specified for 

        29   mg f    
        30   mg f    
        31   mg f    
        32   mg f    
        33   mg f    
        34   mg f    
        35   mg f    
        36   mg f    
        37   mg f    
        38   mg f    
        39   mg f    
        40   mg f    
        41   mg f    
        42   mg f    
        43   mg f    
        44   mg f    


              +--------------------------------------------------+
              | Atomic coordinate, charge and isotop information |
              +--------------------------------------------------+


              atomic coordinates              atom shells charge pseudo isotop
     7.95196757   19.87991892   15.90393513    o      9    8.000    0     0
    11.92795135   15.90393513   15.90393513    o      9    8.000    0     0
    11.92795135   19.87991892   15.90393513    mg     8   12.000    0     0
    11.92795135   23.85590270   15.90393513    o      9    8.000    0     0
    15.90393513   11.92795135   15.90393513    o      9    8.000    0     0
    15.90393513   15.90393513   15.90393513    mg     8   12.000    0     0
    15.90393513   19.87991892   15.90393513    o      9    8.000    0     0
    15.90393513   23.85590270   15.90393513    mg     8   12.000    0     0
    15.90393513   27.83188649   15.90393513    o      9    8.000    0     0
    19.87991892   15.90393513   15.90393513    o      9    8.000    0     0
    19.87991892   19.87991892   15.90393513    mg     8   12.000    0     0
    19.87991892   23.85590270   15.90393513    o      9    8.000    0     0
    23.85590270   19.87991892   15.90393513    o      9    8.000    0     0
     7.95196757   19.87991892   11.92795135    mg     8   12.000    0     0
    11.92795135   15.90393513   11.92795135    mg     8   12.000    0     0
    11.92795135   19.87991892   11.92795135    o      9    8.000    0     0
    11.92795135   23.85590270   11.92795135    mg     8   12.000    0     0
    15.90393513   11.92795135   11.92795135    mg     8   12.000    0     0
    15.90393513   15.90393513   11.92795135    o      9    8.000    0     0
    15.90393513   19.87991892   11.92795135    mg     8   12.000    0     0
    15.90393513   23.85590270   11.92795135    o      9    8.000    0     0
    15.90393513   27.83188649   11.92795135    mg     8   12.000    0     0
    19.87991892   15.90393513   11.92795135    mg     8   12.000    0     0
    19.87991892   19.87991892   11.92795135    o      9    8.000    0     0
    19.87991892   23.85590270   11.92795135    mg     8   12.000    0     0
    23.85590270   19.87991892   11.92795135    mg     8   12.000    0     0
    15.90393513   19.87991892    7.95196757    o      9    8.000    0     0
    15.90393513   19.87991892    3.97598378    mg     8   12.000    0     0
     3.97598378   19.87991892   15.90393513    mg     0   12.000    1     0
     7.95196757   15.90393513   15.90393513    mg     0   12.000    1     0
     7.95196757   23.85590270   15.90393513    mg     0   12.000    1     0
    11.92795135   11.92795135   15.90393513    mg     0   12.000    1     0
    11.92795135   27.83188649   15.90393513    mg     0   12.000    1     0
    15.90393513    7.95196757   15.90393513    mg     0   12.000    1     0
    15.90393513   31.80787027   15.90393513    mg     0   12.000    1     0
    19.87991892   11.92795135   15.90393513    mg     0   12.000    1     0
    19.87991892   27.83188649   15.90393513    mg     0   12.000    1     0
    23.85590270   15.90393513   15.90393513    mg     0   12.000    1     0
    23.85590270   23.85590270   15.90393513    mg     0   12.000    1     0
    27.83188649   19.87991892   15.90393513    mg     0   12.000    1     0
    11.92795135   19.87991892    7.95196757    mg     0   12.000    1     0
    15.90393513   15.90393513    7.95196757    mg     0   12.000    1     0
    15.90393513   23.85590270    7.95196757    mg     0   12.000    1     0
    19.87991892   19.87991892    7.95196757    mg     0   12.000    1     0
    15.91021979   19.87858943   19.89199427    cu    13   29.000    0     0
    13.68060302   22.11609765   21.44488976    c      9    6.000    0     0
    12.37309785   23.43189782   22.58365417    o      9    8.000    0     0
    18.14759642   17.64968204   21.44594084    c      9    6.000    0     0
    19.46293508   16.34296206   22.58634595    o      9    8.000    0     0
 

     center of nuclear mass  :   15.90495487   19.88013071   14.30580320

     center of nuclear charge:   15.90493614   19.88014061   14.28572188


              +--------------------------------------------------+
              |               basis set information              |
              +--------------------------------------------------+


              we will work with the  1s 3p 5d  7f  9g ... basis set
              ...i.e. with spherical basis functions...


   type   atoms  prim   cont   basis
   ---------------------------------------------------------------------------
    o       16     34     19   def-TZVP   [5s3p1d|11s6p1d]
    mg      14     35     14   def-TZVP   [5s3p|14s7p]
    cu       1     80     33   def-TZVP   [6s4p3d|17s11p6d]
    c        2     34     19   def-TZVP   [5s3p1d|11s6p1d]
   ---------------------------------------------------------------------------
   total:   49   1182    571
   ---------------------------------------------------------------------------

   total number of primitive shells          :   91
   total number of contracted shells         :  287
   total number of cartesian basis functions :  592
   total number of SCF-basis functions       :  571


 integral neglect threshold       :  0.56E-11
 integral storage threshold THIZE :  0.10E-04
 integral storage threshold THIME :         5

 number of unique ecp types :           1
 Becke-3-Parameter hybrid functional: B3-LYP
 exchange:    0.8*LDA + 0.72*B88 + 0.2*HF
 correlation: 0.19*LDA(VWN) + 0.81*LYP
 A Hybrid-DFT calculation using the RI-J approximation will be carried out.
  
  
 AUXILIARY BASIS SET information:

 W A R N I N G : BASIS SET NICKNAME none DOES NOT CONTAIN ATOMIC SYMBOL mg !


  WARNING : no basis functions have been specified for 

        29   mg f    
        30   mg f    
        31   mg f    
        32   mg f    
        33   mg f    
        34   mg f    
        35   mg f    
        36   mg f    
        37   mg f    
        38   mg f    
        39   mg f    
        40   mg f    
        41   mg f    
        42   mg f    
        43   mg f    
        44   mg f    

   we will work with the  1s 3p 5d  7f  9g 11h 13i auxiliary basis set
   ...i.e. with spherical basis functions...

   type   atoms  prim   cont   basis
   ---------------------------------------------------------------------------
    o       16     40     38   def-TZVP   [7s3p3d1f|9s3p3d1f]
    mg      14     51     28   def-TZVP   [5s2p2d1f|12s4p4d1f]
    cu       1    106     68   def-TZVP   [7s4p2d3f2g|17s4p4d3f4g]
    c        2     40     38   def-TZVP   [7s3p3d1f|9s3p3d1f]
   ---------------------------------------------------------------------------
   total:   49   1540   1144
   ---------------------------------------------------------------------------

   total number of primitive shells          :   85
   total number of contracted shells         :  410
   total number of cartesian basis functions : 1345
   total number of SCF-basis functions       : 1144


 symmetry group of the molecule :   c1 

 the group has the following generators :
   c1(z)

    1 symmetry operations found

 there are 1 real representations :   a   

 maximum number of shells which are related by symmetry :  1


    mo occupation :
   irrep   mo's   occupied
    a      571      169
 
 number of basis functions   :          571
 number of occupied orbitals :          169
 

 biggest AO integral is expected to be    17.830051868

 cpu time for 2e-integral bound :      0.15 sec

  
           ------------------
           density functional
           ------------------
 Becke-3-Parameter hybrid functional: B3-LYP
 exchange:    0.8*LDA + 0.72*B88 + 0.2*HF
 correlation: 0.19*LDA(VWN) + 0.81*LYP
 iterations will be done with small grid
  
 spherical integration : Lebedev's spherical grid
 spherical gridsize    :           3
    i.e. gridpoints    :         302
 value for diffuse not defined
 radial integration    : Chebyshev 2nd kind (scaling 3)
 radial gridsize       :           3
 integration cells     :          49
 partition function    : becke
 partition sharpness   :           3
  
  
           ------------------------
             RDGRAD - INFORMATION
           ------------------------
  
 Threshold for integral neglect (rithr2): 1E-10
 Threshold for integral neglect (rithr1): 1E-10
 Contributions to RI integral batches: 
  neglected integral batches:       16528
  direct contribution:              24800
     
 
    +---------------- Multipole Accelerated RI-J ---------------+
    -------------------------------------------------------------
      Number of bins for density partition        :  8
      Maximum multipole moment used               : 14
      Multipole precision parameter               :  1.0000E-08
      Threshold for moment summation              :  1.0000E-24
      Minimum separation between boxes            :  0.0000E+00
      Maximum allowed extent                      :  2.0000E+01
    +-----------------------------------------------------------+
 
 Extensions and centers of shell-pairs:
  number of shells with a single center:    23936
  number of shells with double centers:       864
 ****************************************
 Memory allocated for RDGRAD: 17 MiB
 ****************************************
                                            
     

 nuclear repulsion energy  :   8251.06501281    

 
          -----------------
          -S- integrals
          -----------------

 1e-integrals will be neglected if expon. factor < 0.564521E-12
  MOs are in ASCII format !


 reading orbital data $uhfmo_alpha  from file alpha . 

 orbital characterization : scfconv=7
 

 reading orbital data $uhfmo_beta  from file beta . 

 orbital characterization : scfconv=7
 
  Deviation of MOs from orthonormality   1.207298150340819E-013
  Deviation of MOs from orthonormality   9.314406783031155E-014

    ----------------------------------------
     S+T+V CONTRIBUTIONS TO ENERGY GRADIENT 
    ----------------------------------------

 1e-integral 1st. derivatives will be neglected if expon. factor < 0.113094E-13

 ECP: maximum angular momentum =           2
 ECP: maximum angular projector=           1

         +--------------------------------------------------+
         |       EMBEDDING IN PERIODIC POINT CHARGES        |
         |             M. Sierka and A. Burow               |
         +--------------------------------------------------+

 
    +------------------------ Parameters ------------------------+
    -------------------------------------------------------------
      Maximum multipole moment used               : 25
      Multipole precision parameter               :  1.0000E-08
      Minimum separation between cells            :  3.0000E+00
    +-----------------------------------------------------------+
 
 Cell vectors (au): 
               39.75983786          0.00000000          0.00000000
                0.00000000         39.75983786          0.00000000
                0.00000000          0.00000000         56.69178402

         +--------------------------------------------------+
         | Coordinates of all systems centered about cell 0 |
         +--------------------------------------------------+

 Redefined unit cell content (au): 
     Label               Cartesian Coordinates            Charge
      O        3.97598379    0.00000000   -3.97598379   -2.000000
      Mg       3.97598379    3.97598379   -3.97598379    2.000000
      O        3.97598379    7.95196757   -3.97598379   -2.000000
      Mg       3.97598379   11.92795136   -3.97598379    2.000000
      O        3.97598379   15.90393514   -3.97598379   -2.000000
      Mg       3.97598379   19.87991893   -3.97598379    2.000000
      O        3.97598379   23.85590271   -3.97598379   -2.000000
      Mg       3.97598379   27.83188650   -3.97598379    2.000000
      O        3.97598379   31.80787029   -3.97598379   -2.000000
      Mg       3.97598379   35.78385407   -3.97598379    2.000000
      Mg       7.95196757    0.00000000   -3.97598379    2.000000
      O        7.95196757    3.97598379   -3.97598379   -2.000000
      Mg       7.95196757    7.95196757   -3.97598379    2.000000
      O        7.95196757   11.92795136   -3.97598379   -2.000000
      Mg       7.95196757   15.90393514   -3.97598379    2.000000
      O        7.95196757   19.87991893   -3.97598379   -2.000000
      Mg       7.95196757   23.85590271   -3.97598379    2.000000
      O        7.95196757   27.83188650   -3.97598379   -2.000000
      Mg       7.95196757   31.80787029   -3.97598379    2.000000
      O        7.95196757   35.78385407   -3.97598379   -2.000000
      O       11.92795136    0.00000000   -3.97598379   -2.000000
      Mg      11.92795136    3.97598379   -3.97598379    2.000000
      O       11.92795136    7.95196757   -3.97598379   -2.000000
      Mg      11.92795136   11.92795136   -3.97598379    2.000000
      O       11.92795136   15.90393514   -3.97598379   -2.000000
      Mg      11.92795136   19.87991893   -3.97598379    2.000000
      O       11.92795136   23.85590271   -3.97598379   -2.000000
      Mg      11.92795136   27.83188650   -3.97598379    2.000000
      O       11.92795136   31.80787029   -3.97598379   -2.000000
      Mg      11.92795136   35.78385407   -3.97598379    2.000000
      Mg      15.90393514    0.00000000   -3.97598379    2.000000
      O       15.90393514    3.97598379   -3.97598379   -2.000000
      Mg      15.90393514    7.95196757   -3.97598379    2.000000
      O       15.90393514   11.92795136   -3.97598379   -2.000000
      Mg      15.90393514   15.90393514   -3.97598379    2.000000
      O       15.90393514   19.87991893   -3.97598379   -2.000000
      Mg      15.90393514   23.85590271   -3.97598379    2.000000
      O       15.90393514   27.83188650   -3.97598379   -2.000000
      Mg      15.90393514   31.80787029   -3.97598379    2.000000
      O       15.90393514   35.78385407   -3.97598379   -2.000000
      O       19.87991893    0.00000000   -3.97598379   -2.000000
      Mg      19.87991893    3.97598379   -3.97598379    2.000000
      O       19.87991893    7.95196757   -3.97598379   -2.000000
      Mg      19.87991893   11.92795136   -3.97598379    2.000000
      O       19.87991893   15.90393514   -3.97598379   -2.000000
      Mg      19.87991893   19.87991893   -3.97598379    2.000000
      O       19.87991893   23.85590271   -3.97598379   -2.000000
      Mg      19.87991893   27.83188650   -3.97598379    2.000000
      O       19.87991893   31.80787029   -3.97598379   -2.000000
      Mg      19.87991893   35.78385407   -3.97598379    2.000000
      Mg      23.85590271    0.00000000   -3.97598379    2.000000
      O       23.85590271    3.97598379   -3.97598379   -2.000000
      Mg      23.85590271    7.95196757   -3.97598379    2.000000
      O       23.85590271   11.92795136   -3.97598379   -2.000000
      Mg      23.85590271   15.90393514   -3.97598379    2.000000
      O       23.85590271   19.87991893   -3.97598379   -2.000000
      Mg      23.85590271   23.85590271   -3.97598379    2.000000
      O       23.85590271   27.83188650   -3.97598379   -2.000000
      Mg      23.85590271   31.80787029   -3.97598379    2.000000
      O       23.85590271   35.78385407   -3.97598379   -2.000000
      O       27.83188650    0.00000000   -3.97598379   -2.000000
      Mg      27.83188650    3.97598379   -3.97598379    2.000000
      O       27.83188650    7.95196757   -3.97598379   -2.000000
      Mg      27.83188650   11.92795136   -3.97598379    2.000000
      O       27.83188650   15.90393514   -3.97598379   -2.000000
      Mg      27.83188650   19.87991893   -3.97598379    2.000000
      O       27.83188650   23.85590271   -3.97598379   -2.000000
      Mg      27.83188650   27.83188650   -3.97598379    2.000000
      O       27.83188650   31.80787029   -3.97598379   -2.000000
      Mg      27.83188650   35.78385407   -3.97598379    2.000000
      Mg      31.80787029    0.00000000   -3.97598379    2.000000
      O       31.80787029    3.97598379   -3.97598379   -2.000000
      Mg      31.80787029    7.95196757   -3.97598379    2.000000
      O       31.80787029   11.92795136   -3.97598379   -2.000000
      Mg      31.80787029   15.90393514   -3.97598379    2.000000
      O       31.80787029   19.87991893   -3.97598379   -2.000000
      Mg      31.80787029   23.85590271   -3.97598379    2.000000
      O       31.80787029   27.83188650   -3.97598379   -2.000000
      Mg      31.80787029   31.80787029   -3.97598379    2.000000
      O       31.80787029   35.78385407   -3.97598379   -2.000000
      O       35.78385407    0.00000000   -3.97598379   -2.000000
      Mg      35.78385407    3.97598379   -3.97598379    2.000000
      O       35.78385407    7.95196757   -3.97598379   -2.000000
      Mg      35.78385407   11.92795136   -3.97598379    2.000000
      O       35.78385407   15.90393514   -3.97598379   -2.000000
      Mg      35.78385407   19.87991893   -3.97598379    2.000000
      O       35.78385407   23.85590271   -3.97598379   -2.000000
      Mg      35.78385407   27.83188650   -3.97598379    2.000000
      O       35.78385407   31.80787029   -3.97598379   -2.000000
      Mg      35.78385407   35.78385407   -3.97598379    2.000000
      Mg       0.00000000    0.00000000   -3.97598379    2.000000
      O        0.00000000    3.97598379   -3.97598379   -2.000000
      Mg       0.00000000    7.95196757   -3.97598379    2.000000
      O        0.00000000   11.92795136   -3.97598379   -2.000000
      Mg       0.00000000   15.90393514   -3.97598379    2.000000
      O        0.00000000   19.87991893   -3.97598379   -2.000000
      Mg       0.00000000   23.85590271   -3.97598379    2.000000
      O        0.00000000   27.83188650   -3.97598379   -2.000000
      Mg       0.00000000   31.80787029   -3.97598379    2.000000
      O        0.00000000   35.78385407   -3.97598379   -2.000000
      Mg       3.97598379    0.00000000    0.00000000    2.000000
      O        3.97598379    3.97598379    0.00000000   -2.000000
      Mg       3.97598379    7.95196757    0.00000000    2.000000
      O        3.97598379   11.92795136    0.00000000   -2.000000
      Mg       3.97598379   15.90393514    0.00000000    2.000000
      O        3.97598379   19.87991893    0.00000000   -2.000000
      Mg       3.97598379   23.85590271    0.00000000    2.000000
      O        3.97598379   27.83188650    0.00000000   -2.000000
      Mg       3.97598379   31.80787029    0.00000000    2.000000
      O        3.97598379   35.78385407    0.00000000   -2.000000
      O        7.95196757    0.00000000    0.00000000   -2.000000
      Mg       7.95196757    3.97598379    0.00000000    2.000000
      O        7.95196757    7.95196757    0.00000000   -2.000000
      Mg       7.95196757   11.92795136    0.00000000    2.000000
      O        7.95196757   15.90393514    0.00000000   -2.000000
      Mg       7.95196757   19.87991893    0.00000000    2.000000
      O        7.95196757   23.85590271    0.00000000   -2.000000
      Mg       7.95196757   27.83188650    0.00000000    2.000000
      O        7.95196757   31.80787029    0.00000000   -2.000000
      Mg       7.95196757   35.78385407    0.00000000    2.000000
      Mg      11.92795136    0.00000000    0.00000000    2.000000
      O       11.92795136    3.97598379    0.00000000   -2.000000
      Mg      11.92795136    7.95196757    0.00000000    2.000000
      O       11.92795136   11.92795136    0.00000000   -2.000000
      Mg      11.92795136   15.90393514    0.00000000    2.000000
      O       11.92795136   19.87991893    0.00000000   -2.000000
      Mg      11.92795136   23.85590271    0.00000000    2.000000
      O       11.92795136   27.83188650    0.00000000   -2.000000
      Mg      11.92795136   31.80787029    0.00000000    2.000000
      O       11.92795136   35.78385407    0.00000000   -2.000000
      O       15.90393514    0.00000000    0.00000000   -2.000000
      Mg      15.90393514    3.97598379    0.00000000    2.000000
      O       15.90393514    7.95196757    0.00000000   -2.000000
      Mg      15.90393514   11.92795136    0.00000000    2.000000
      O       15.90393514   15.90393514    0.00000000   -2.000000
      Mg      15.90393514   19.87991893    0.00000000    2.000000
      O       15.90393514   23.85590271    0.00000000   -2.000000
      Mg      15.90393514   27.83188650    0.00000000    2.000000
      O       15.90393514   31.80787029    0.00000000   -2.000000
      Mg      15.90393514   35.78385407    0.00000000    2.000000
      Mg      19.87991893    0.00000000    0.00000000    2.000000
      O       19.87991893    3.97598379    0.00000000   -2.000000
      Mg      19.87991893    7.95196757    0.00000000    2.000000
      O       19.87991893   11.92795136    0.00000000   -2.000000
      Mg      19.87991893   15.90393514    0.00000000    2.000000
      O       19.87991893   19.87991893    0.00000000   -2.000000
      Mg      19.87991893   23.85590271    0.00000000    2.000000
      O       19.87991893   27.83188650    0.00000000   -2.000000
      Mg      19.87991893   31.80787029    0.00000000    2.000000
      O       19.87991893   35.78385407    0.00000000   -2.000000
      O       23.85590271    0.00000000    0.00000000   -2.000000
      Mg      23.85590271    3.97598379    0.00000000    2.000000
      O       23.85590271    7.95196757    0.00000000   -2.000000
      Mg      23.85590271   11.92795136    0.00000000    2.000000
      O       23.85590271   15.90393514    0.00000000   -2.000000
      Mg      23.85590271   19.87991893    0.00000000    2.000000
      O       23.85590271   23.85590271    0.00000000   -2.000000
      Mg      23.85590271   27.83188650    0.00000000    2.000000
      O       23.85590271   31.80787029    0.00000000   -2.000000
      Mg      23.85590271   35.78385407    0.00000000    2.000000
      Mg      27.83188650    0.00000000    0.00000000    2.000000
      O       27.83188650    3.97598379    0.00000000   -2.000000
      Mg      27.83188650    7.95196757    0.00000000    2.000000
      O       27.83188650   11.92795136    0.00000000   -2.000000
      Mg      27.83188650   15.90393514    0.00000000    2.000000
      O       27.83188650   19.87991893    0.00000000   -2.000000
      Mg      27.83188650   23.85590271    0.00000000    2.000000
      O       27.83188650   27.83188650    0.00000000   -2.000000
      Mg      27.83188650   31.80787029    0.00000000    2.000000
      O       27.83188650   35.78385407    0.00000000   -2.000000
      O       31.80787029    0.00000000    0.00000000   -2.000000
      Mg      31.80787029    3.97598379    0.00000000    2.000000
      O       31.80787029    7.95196757    0.00000000   -2.000000
      Mg      31.80787029   11.92795136    0.00000000    2.000000
      O       31.80787029   15.90393514    0.00000000   -2.000000
      Mg      31.80787029   19.87991893    0.00000000    2.000000
      O       31.80787029   23.85590271    0.00000000   -2.000000
      Mg      31.80787029   27.83188650    0.00000000    2.000000
      O       31.80787029   31.80787029    0.00000000   -2.000000
      Mg      31.80787029   35.78385407    0.00000000    2.000000
      Mg      35.78385407    0.00000000    0.00000000    2.000000
      O       35.78385407    3.97598379    0.00000000   -2.000000
      Mg      35.78385407    7.95196757    0.00000000    2.000000
      O       35.78385407   11.92795136    0.00000000   -2.000000
      Mg      35.78385407   15.90393514    0.00000000    2.000000
      O       35.78385407   19.87991893    0.00000000   -2.000000
      Mg      35.78385407   23.85590271    0.00000000    2.000000
      O       35.78385407   27.83188650    0.00000000   -2.000000
      Mg      35.78385407   31.80787029    0.00000000    2.000000
      O       35.78385407   35.78385407    0.00000000   -2.000000
      O        0.00000000    0.00000000    0.00000000   -2.000000
      Mg       0.00000000    3.97598379    0.00000000    2.000000
      O        0.00000000    7.95196757    0.00000000   -2.000000
      Mg       0.00000000   11.92795136    0.00000000    2.000000
      O        0.00000000   15.90393514    0.00000000   -2.000000
      Mg       0.00000000   19.87991893    0.00000000    2.000000
      O        0.00000000   23.85590271    0.00000000   -2.000000
      Mg       0.00000000   27.83188650    0.00000000    2.000000
      O        0.00000000   31.80787029    0.00000000   -2.000000
      Mg       0.00000000   35.78385407    0.00000000    2.000000
      O        3.97598379    0.00000000    3.97598379   -2.000000
      Mg       3.97598379    3.97598379    3.97598379    2.000000
      O        3.97598379    7.95196757    3.97598379   -2.000000
      Mg       3.97598379   11.92795136    3.97598379    2.000000
      O        3.97598379   15.90393514    3.97598379   -2.000000
      Mg       3.97598379   19.87991893    3.97598379    2.000000
      O        3.97598379   23.85590271    3.97598379   -2.000000
      Mg       3.97598379   27.83188650    3.97598379    2.000000
      O        3.97598379   31.80787029    3.97598379   -2.000000
      Mg       3.97598379   35.78385407    3.97598379    2.000000
      Mg       7.95196757    0.00000000    3.97598379    2.000000
      O        7.95196757    3.97598379    3.97598379   -2.000000
      Mg       7.95196757    7.95196757    3.97598379    2.000000
      O        7.95196757   11.92795136    3.97598379   -2.000000
      Mg       7.95196757   15.90393514    3.97598379    2.000000
      O        7.95196757   19.87991893    3.97598379   -2.000000
      Mg       7.95196757   23.85590271    3.97598379    2.000000
      O        7.95196757   27.83188650    3.97598379   -2.000000
      Mg       7.95196757   31.80787029    3.97598379    2.000000
      O        7.95196757   35.78385407    3.97598379   -2.000000
      O       11.92795136    0.00000000    3.97598379   -2.000000
      Mg      11.92795136    3.97598379    3.97598379    2.000000
      O       11.92795136    7.95196757    3.97598379   -2.000000
      Mg      11.92795136   11.92795136    3.97598379    2.000000
      O       11.92795136   15.90393514    3.97598379   -2.000000
      Mg      11.92795136   19.87991893    3.97598379    2.000000
      O       11.92795136   23.85590271    3.97598379   -2.000000
      Mg      11.92795136   27.83188650    3.97598379    2.000000
      O       11.92795136   31.80787029    3.97598379   -2.000000
      Mg      11.92795136   35.78385407    3.97598379    2.000000
      Mg      15.90393514    0.00000000    3.97598379    2.000000
      O       15.90393514    3.97598379    3.97598379   -2.000000
      Mg      15.90393514    7.95196757    3.97598379    2.000000
      O       15.90393514   11.92795136    3.97598379   -2.000000
      Mg      15.90393514   15.90393514    3.97598379    2.000000
      O       15.90393514   19.87991893    3.97598379   -2.000000
      Mg      15.90393514   23.85590271    3.97598379    2.000000
      O       15.90393514   27.83188650    3.97598379   -2.000000
      Mg      15.90393514   31.80787029    3.97598379    2.000000
      O       15.90393514   35.78385407    3.97598379   -2.000000
      O       19.87991893    0.00000000    3.97598379   -2.000000
      Mg      19.87991893    3.97598379    3.97598379    2.000000
      O       19.87991893    7.95196757    3.97598379   -2.000000
      Mg      19.87991893   11.92795136    3.97598379    2.000000
      O       19.87991893   15.90393514    3.97598379   -2.000000
      Mg      19.87991893   19.87991893    3.97598379    2.000000
      O       19.87991893   23.85590271    3.97598379   -2.000000
      Mg      19.87991893   27.83188650    3.97598379    2.000000
      O       19.87991893   31.80787029    3.97598379   -2.000000
      Mg      19.87991893   35.78385407    3.97598379    2.000000
      Mg      23.85590271    0.00000000    3.97598379    2.000000
      O       23.85590271    3.97598379    3.97598379   -2.000000
      Mg      23.85590271    7.95196757    3.97598379    2.000000
      O       23.85590271   11.92795136    3.97598379   -2.000000
      Mg      23.85590271   15.90393514    3.97598379    2.000000
      O       23.85590271   19.87991893    3.97598379   -2.000000
      Mg      23.85590271   23.85590271    3.97598379    2.000000
      O       23.85590271   27.83188650    3.97598379   -2.000000
      Mg      23.85590271   31.80787029    3.97598379    2.000000
      O       23.85590271   35.78385407    3.97598379   -2.000000
      O       27.83188650    0.00000000    3.97598379   -2.000000
      Mg      27.83188650    3.97598379    3.97598379    2.000000
      O       27.83188650    7.95196757    3.97598379   -2.000000
      Mg      27.83188650   11.92795136    3.97598379    2.000000
      O       27.83188650   15.90393514    3.97598379   -2.000000
      Mg      27.83188650   19.87991893    3.97598379    2.000000
      O       27.83188650   23.85590271    3.97598379   -2.000000
      Mg      27.83188650   27.83188650    3.97598379    2.000000
      O       27.83188650   31.80787029    3.97598379   -2.000000
      Mg      27.83188650   35.78385407    3.97598379    2.000000
      Mg      31.80787029    0.00000000    3.97598379    2.000000
      O       31.80787029    3.97598379    3.97598379   -2.000000
      Mg      31.80787029    7.95196757    3.97598379    2.000000
      O       31.80787029   11.92795136    3.97598379   -2.000000
      Mg      31.80787029   15.90393514    3.97598379    2.000000
      O       31.80787029   19.87991893    3.97598379   -2.000000
      Mg      31.80787029   23.85590271    3.97598379    2.000000
      O       31.80787029   27.83188650    3.97598379   -2.000000
      Mg      31.80787029   31.80787029    3.97598379    2.000000
      O       31.80787029   35.78385407    3.97598379   -2.000000
      O       35.78385407    0.00000000    3.97598379   -2.000000
      Mg      35.78385407    3.97598379    3.97598379    2.000000
      O       35.78385407    7.95196757    3.97598379   -2.000000
      Mg      35.78385407   11.92795136    3.97598379    2.000000
      O       35.78385407   15.90393514    3.97598379   -2.000000
      Mg      35.78385407   19.87991893    3.97598379    2.000000
      O       35.78385407   23.85590271    3.97598379   -2.000000
      Mg      35.78385407   27.83188650    3.97598379    2.000000
      O       35.78385407   31.80787029    3.97598379   -2.000000
      Mg      35.78385407   35.78385407    3.97598379    2.000000
      Mg       0.00000000    0.00000000    3.97598379    2.000000
      O        0.00000000    3.97598379    3.97598379   -2.000000
      Mg       0.00000000    7.95196757    3.97598379    2.000000
      O        0.00000000   11.92795136    3.97598379   -2.000000
      Mg       0.00000000   15.90393514    3.97598379    2.000000
      O        0.00000000   19.87991893    3.97598379   -2.000000
      Mg       0.00000000   23.85590271    3.97598379    2.000000
      O        0.00000000   27.83188650    3.97598379   -2.000000
      Mg       0.00000000   31.80787029    3.97598379    2.000000
      O        0.00000000   35.78385407    3.97598379   -2.000000
      Mg       3.97598379    0.00000000    7.95196757    2.000000
      O        3.97598379    3.97598379    7.95196757   -2.000000
      Mg       3.97598379    7.95196757    7.95196757    2.000000
      O        3.97598379   11.92795136    7.95196757   -2.000000
      Mg       3.97598379   15.90393514    7.95196757    2.000000
      O        3.97598379   19.87991893    7.95196757   -2.000000
      Mg       3.97598379   23.85590271    7.95196757    2.000000
      O        3.97598379   27.83188650    7.95196757   -2.000000
      Mg       3.97598379   31.80787029    7.95196757    2.000000
      O        3.97598379   35.78385407    7.95196757   -2.000000
      O        7.95196757    0.00000000    7.95196757   -2.000000
      Mg       7.95196757    3.97598379    7.95196757    2.000000
      O        7.95196757    7.95196757    7.95196757   -2.000000
      Mg       7.95196757   11.92795136    7.95196757    2.000000
      O        7.95196757   15.90393514    7.95196757   -2.000000
      Mg       7.95196757   19.87991893    7.95196757    2.000000
      O        7.95196757   23.85590271    7.95196757   -2.000000
      Mg       7.95196757   27.83188650    7.95196757    2.000000
      O        7.95196757   31.80787029    7.95196757   -2.000000
      Mg       7.95196757   35.78385407    7.95196757    2.000000
      Mg      11.92795136    0.00000000    7.95196757    2.000000
      O       11.92795136    3.97598379    7.95196757   -2.000000
      Mg      11.92795136    7.95196757    7.95196757    2.000000
      O       11.92795136   11.92795136    7.95196757   -2.000000
      Mg      11.92795136   15.90393514    7.95196757    2.000000
      O       11.92795136   19.87991893    7.95196757   -2.000000
      Mg      11.92795136   23.85590271    7.95196757    2.000000
      O       11.92795136   27.83188650    7.95196757   -2.000000
      Mg      11.92795136   31.80787029    7.95196757    2.000000
      O       11.92795136   35.78385407    7.95196757   -2.000000
      O       15.90393514    0.00000000    7.95196757   -2.000000
      Mg      15.90393514    3.97598379    7.95196757    2.000000
      O       15.90393514    7.95196757    7.95196757   -2.000000
      Mg      15.90393514   11.92795136    7.95196757    2.000000
      O       15.90393514   15.90393514    7.95196757   -2.000000
      Mg      15.90393514   19.87991893    7.95196757    2.000000
      O       15.90393514   23.85590271    7.95196757   -2.000000
      Mg      15.90393514   27.83188650    7.95196757    2.000000
      O       15.90393514   31.80787029    7.95196757   -2.000000
      Mg      15.90393514   35.78385407    7.95196757    2.000000
      Mg      19.87991893    0.00000000    7.95196757    2.000000
      O       19.87991893    3.97598379    7.95196757   -2.000000
      Mg      19.87991893    7.95196757    7.95196757    2.000000
      O       19.87991893   11.92795136    7.95196757   -2.000000
      Mg      19.87991893   15.90393514    7.95196757    2.000000
      O       19.87991893   19.87991893    7.95196757   -2.000000
      Mg      19.87991893   23.85590271    7.95196757    2.000000
      O       19.87991893   27.83188650    7.95196757   -2.000000
      Mg      19.87991893   31.80787029    7.95196757    2.000000
      O       19.87991893   35.78385407    7.95196757   -2.000000
      O       23.85590271    0.00000000    7.95196757   -2.000000
      Mg      23.85590271    3.97598379    7.95196757    2.000000
      O       23.85590271    7.95196757    7.95196757   -2.000000
      Mg      23.85590271   11.92795136    7.95196757    2.000000
      O       23.85590271   15.90393514    7.95196757   -2.000000
      Mg      23.85590271   19.87991893    7.95196757    2.000000
      O       23.85590271   23.85590271    7.95196757   -2.000000
      Mg      23.85590271   27.83188650    7.95196757    2.000000
      O       23.85590271   31.80787029    7.95196757   -2.000000
      Mg      23.85590271   35.78385407    7.95196757    2.000000
      Mg      27.83188650    0.00000000    7.95196757    2.000000
      O       27.83188650    3.97598379    7.95196757   -2.000000
      Mg      27.83188650    7.95196757    7.95196757    2.000000
      O       27.83188650   11.92795136    7.95196757   -2.000000
      Mg      27.83188650   15.90393514    7.95196757    2.000000
      O       27.83188650   19.87991893    7.95196757   -2.000000
      Mg      27.83188650   23.85590271    7.95196757    2.000000
      O       27.83188650   27.83188650    7.95196757   -2.000000
      Mg      27.83188650   31.80787029    7.95196757    2.000000
      O       27.83188650   35.78385407    7.95196757   -2.000000
      O       31.80787029    0.00000000    7.95196757   -2.000000
      Mg      31.80787029    3.97598379    7.95196757    2.000000
      O       31.80787029    7.95196757    7.95196757   -2.000000
      Mg      31.80787029   11.92795136    7.95196757    2.000000
      O       31.80787029   15.90393514    7.95196757   -2.000000
      Mg      31.80787029   19.87991893    7.95196757    2.000000
      O       31.80787029   23.85590271    7.95196757   -2.000000
      Mg      31.80787029   27.83188650    7.95196757    2.000000
      O       31.80787029   31.80787029    7.95196757   -2.000000
      Mg      31.80787029   35.78385407    7.95196757    2.000000
      Mg      35.78385407    0.00000000    7.95196757    2.000000
      O       35.78385407    3.97598379    7.95196757   -2.000000
      Mg      35.78385407    7.95196757    7.95196757    2.000000
      O       35.78385407   11.92795136    7.95196757   -2.000000
      Mg      35.78385407   15.90393514    7.95196757    2.000000
      O       35.78385407   19.87991893    7.95196757   -2.000000
      Mg      35.78385407   23.85590271    7.95196757    2.000000
      O       35.78385407   27.83188650    7.95196757   -2.000000
      Mg      35.78385407   31.80787029    7.95196757    2.000000
      O       35.78385407   35.78385407    7.95196757   -2.000000
      O        0.00000000    0.00000000    7.95196757   -2.000000
      Mg       0.00000000    3.97598379    7.95196757    2.000000
      O        0.00000000    7.95196757    7.95196757   -2.000000
      Mg       0.00000000   11.92795136    7.95196757    2.000000
      O        0.00000000   15.90393514    7.95196757   -2.000000
      Mg       0.00000000   19.87991893    7.95196757    2.000000
      O        0.00000000   23.85590271    7.95196757   -2.000000
      Mg       0.00000000   27.83188650    7.95196757    2.000000
      O        0.00000000   31.80787029    7.95196757   -2.000000
      Mg       0.00000000   35.78385407    7.95196757    2.000000
      O        3.97598379    0.00000000   11.92795136   -2.000000
      Mg       3.97598379    3.97598379   11.92795136    2.000000
      O        3.97598379    7.95196757   11.92795136   -2.000000
      Mg       3.97598379   11.92795136   11.92795136    2.000000
      O        3.97598379   15.90393514   11.92795136   -2.000000
      Mg       3.97598379   19.87991893   11.92795136    2.000000
      O        3.97598379   23.85590271   11.92795136   -2.000000
      Mg       3.97598379   27.83188650   11.92795136    2.000000
      O        3.97598379   31.80787029   11.92795136   -2.000000
      Mg       3.97598379   35.78385407   11.92795136    2.000000
      Mg       7.95196757    0.00000000   11.92795136    2.000000
      O        7.95196757    3.97598379   11.92795136   -2.000000
      Mg       7.95196757    7.95196757   11.92795136    2.000000
      O        7.95196757   11.92795136   11.92795136   -2.000000
      Mg       7.95196757   15.90393514   11.92795136    2.000000
      O        7.95196757   19.87991893   11.92795136   -2.000000
      Mg       7.95196757   23.85590271   11.92795136    2.000000
      O        7.95196757   27.83188650   11.92795136   -2.000000
      Mg       7.95196757   31.80787029   11.92795136    2.000000
      O        7.95196757   35.78385407   11.92795136   -2.000000
      O       11.92795136    0.00000000   11.92795136   -2.000000
      Mg      11.92795136    3.97598379   11.92795136    2.000000
      O       11.92795136    7.95196757   11.92795136   -2.000000
      Mg      11.92795136   11.92795136   11.92795136    2.000000
      O       11.92795136   15.90393514   11.92795136   -2.000000
      Mg      11.92795136   19.87991893   11.92795136    2.000000
      O       11.92795136   23.85590271   11.92795136   -2.000000
      Mg      11.92795136   27.83188650   11.92795136    2.000000
      O       11.92795136   31.80787029   11.92795136   -2.000000
      Mg      11.92795136   35.78385407   11.92795136    2.000000
      Mg      15.90393514    0.00000000   11.92795136    2.000000
      O       15.90393514    3.97598379   11.92795136   -2.000000
      Mg      15.90393514    7.95196757   11.92795136    2.000000
      O       15.90393514   11.92795136   11.92795136   -2.000000
      Mg      15.90393514   15.90393514   11.92795136    2.000000
      O       15.90393514   19.87991893   11.92795136   -2.000000
      Mg      15.90393514   23.85590271   11.92795136    2.000000
      O       15.90393514   27.83188650   11.92795136   -2.000000
      Mg      15.90393514   31.80787029   11.92795136    2.000000
      O       15.90393514   35.78385407   11.92795136   -2.000000
      O       19.87991893    0.00000000   11.92795136   -2.000000
      Mg      19.87991893    3.97598379   11.92795136    2.000000
      O       19.87991893    7.95196757   11.92795136   -2.000000
      Mg      19.87991893   11.92795136   11.92795136    2.000000
      O       19.87991893   15.90393514   11.92795136   -2.000000
      Mg      19.87991893   19.87991893   11.92795136    2.000000
      O       19.87991893   23.85590271   11.92795136   -2.000000
      Mg      19.87991893   27.83188650   11.92795136    2.000000
      O       19.87991893   31.80787029   11.92795136   -2.000000
      Mg      19.87991893   35.78385407   11.92795136    2.000000
      Mg      23.85590271    0.00000000   11.92795136    2.000000
      O       23.85590271    3.97598379   11.92795136   -2.000000
      Mg      23.85590271    7.95196757   11.92795136    2.000000
      O       23.85590271   11.92795136   11.92795136   -2.000000
      Mg      23.85590271   15.90393514   11.92795136    2.000000
      O       23.85590271   19.87991893   11.92795136   -2.000000
      Mg      23.85590271   23.85590271   11.92795136    2.000000
      O       23.85590271   27.83188650   11.92795136   -2.000000
      Mg      23.85590271   31.80787029   11.92795136    2.000000
      O       23.85590271   35.78385407   11.92795136   -2.000000
      O       27.83188650    0.00000000   11.92795136   -2.000000
      Mg      27.83188650    3.97598379   11.92795136    2.000000
      O       27.83188650    7.95196757   11.92795136   -2.000000
      Mg      27.83188650   11.92795136   11.92795136    2.000000
      O       27.83188650   15.90393514   11.92795136   -2.000000
      Mg      27.83188650   19.87991893   11.92795136    2.000000
      O       27.83188650   23.85590271   11.92795136   -2.000000
      Mg      27.83188650   27.83188650   11.92795136    2.000000
      O       27.83188650   31.80787029   11.92795136   -2.000000
      Mg      27.83188650   35.78385407   11.92795136    2.000000
      Mg      31.80787029    0.00000000   11.92795136    2.000000
      O       31.80787029    3.97598379   11.92795136   -2.000000
      Mg      31.80787029    7.95196757   11.92795136    2.000000
      O       31.80787029   11.92795136   11.92795136   -2.000000
      Mg      31.80787029   15.90393514   11.92795136    2.000000
      O       31.80787029   19.87991893   11.92795136   -2.000000
      Mg      31.80787029   23.85590271   11.92795136    2.000000
      O       31.80787029   27.83188650   11.92795136   -2.000000
      Mg      31.80787029   31.80787029   11.92795136    2.000000
      O       31.80787029   35.78385407   11.92795136   -2.000000
      O       35.78385407    0.00000000   11.92795136   -2.000000
      Mg      35.78385407    3.97598379   11.92795136    2.000000
      O       35.78385407    7.95196757   11.92795136   -2.000000
      Mg      35.78385407   11.92795136   11.92795136    2.000000
      O       35.78385407   15.90393514   11.92795136   -2.000000
      Mg      35.78385407   19.87991893   11.92795136    2.000000
      O       35.78385407   23.85590271   11.92795136   -2.000000
      Mg      35.78385407   27.83188650   11.92795136    2.000000
      O       35.78385407   31.80787029   11.92795136   -2.000000
      Mg      35.78385407   35.78385407   11.92795136    2.000000
      Mg       0.00000000    0.00000000   11.92795136    2.000000
      O        0.00000000    3.97598379   11.92795136   -2.000000
      Mg       0.00000000    7.95196757   11.92795136    2.000000
      O        0.00000000   11.92795136   11.92795136   -2.000000
      Mg       0.00000000   15.90393514   11.92795136    2.000000
      O        0.00000000   19.87991893   11.92795136   -2.000000
      Mg       0.00000000   23.85590271   11.92795136    2.000000
      O        0.00000000   27.83188650   11.92795136   -2.000000
      Mg       0.00000000   31.80787029   11.92795136    2.000000
      O        0.00000000   35.78385407   11.92795136   -2.000000
      Mg       3.97598379    0.00000000   15.90393514    2.000000
      O        3.97598379    3.97598379   15.90393514   -2.000000
      Mg       3.97598379    7.95196757   15.90393514    2.000000
      O        3.97598379   11.92795136   15.90393514   -2.000000
      Mg       3.97598379   15.90393514   15.90393514    2.000000
      O        3.97598379   19.87991893   15.90393514   -2.000000
      Mg       3.97598379   23.85590271   15.90393514    2.000000
      O        3.97598379   27.83188650   15.90393514   -2.000000
      Mg       3.97598379   31.80787029   15.90393514    2.000000
      O        3.97598379   35.78385407   15.90393514   -2.000000
      O        7.95196757    0.00000000   15.90393514   -2.000000
      Mg       7.95196757    3.97598379   15.90393514    2.000000
      O        7.95196757    7.95196757   15.90393514   -2.000000
      Mg       7.95196757   11.92795136   15.90393514    2.000000
      O        7.95196757   15.90393514   15.90393514   -2.000000
      Mg       7.95196757   19.87991893   15.90393514    2.000000
      O        7.95196757   23.85590271   15.90393514   -2.000000
      Mg       7.95196757   27.83188650   15.90393514    2.000000
      O        7.95196757   31.80787029   15.90393514   -2.000000
      Mg       7.95196757   35.78385407   15.90393514    2.000000
      Mg      11.92795136    0.00000000   15.90393514    2.000000
      O       11.92795136    3.97598379   15.90393514   -2.000000
      Mg      11.92795136    7.95196757   15.90393514    2.000000
      O       11.92795136   11.92795136   15.90393514   -2.000000
      Mg      11.92795136   15.90393514   15.90393514    2.000000
      O       11.92795136   19.87991893   15.90393514   -2.000000
      Mg      11.92795136   23.85590271   15.90393514    2.000000
      O       11.92795136   27.83188650   15.90393514   -2.000000
      Mg      11.92795136   31.80787029   15.90393514    2.000000
      O       11.92795136   35.78385407   15.90393514   -2.000000
      O       15.90393514    0.00000000   15.90393514   -2.000000
      Mg      15.90393514    3.97598379   15.90393514    2.000000
      O       15.90393514    7.95196757   15.90393514   -2.000000
      Mg      15.90393514   11.92795136   15.90393514    2.000000
      O       15.90393514   15.90393514   15.90393514   -2.000000
      Mg      15.90393514   19.87991893   15.90393514    2.000000
      O       15.90393514   23.85590271   15.90393514   -2.000000
      Mg      15.90393514   27.83188650   15.90393514    2.000000
      O       15.90393514   31.80787029   15.90393514   -2.000000
      Mg      15.90393514   35.78385407   15.90393514    2.000000
      Mg      19.87991893    0.00000000   15.90393514    2.000000
      O       19.87991893    3.97598379   15.90393514   -2.000000
      Mg      19.87991893    7.95196757   15.90393514    2.000000
      O       19.87991893   11.92795136   15.90393514   -2.000000
      Mg      19.87991893   15.90393514   15.90393514    2.000000
      O       19.87991893   19.87991893   15.90393514   -2.000000
      Mg      19.87991893   23.85590271   15.90393514    2.000000
      O       19.87991893   27.83188650   15.90393514   -2.000000
      Mg      19.87991893   31.80787029   15.90393514    2.000000
      O       19.87991893   35.78385407   15.90393514   -2.000000
      O       23.85590271    0.00000000   15.90393514   -2.000000
      Mg      23.85590271    3.97598379   15.90393514    2.000000
      O       23.85590271    7.95196757   15.90393514   -2.000000
      Mg      23.85590271   11.92795136   15.90393514    2.000000
      O       23.85590271   15.90393514   15.90393514   -2.000000
      Mg      23.85590271   19.87991893   15.90393514    2.000000
      O       23.85590271   23.85590271   15.90393514   -2.000000
      Mg      23.85590271   27.83188650   15.90393514    2.000000
      O       23.85590271   31.80787029   15.90393514   -2.000000
      Mg      23.85590271   35.78385407   15.90393514    2.000000
      Mg      27.83188650    0.00000000   15.90393514    2.000000
      O       27.83188650    3.97598379   15.90393514   -2.000000
      Mg      27.83188650    7.95196757   15.90393514    2.000000
      O       27.83188650   11.92795136   15.90393514   -2.000000
      Mg      27.83188650   15.90393514   15.90393514    2.000000
      O       27.83188650   19.87991893   15.90393514   -2.000000
      Mg      27.83188650   23.85590271   15.90393514    2.000000
      O       27.83188650   27.83188650   15.90393514   -2.000000
      Mg      27.83188650   31.80787029   15.90393514    2.000000
      O       27.83188650   35.78385407   15.90393514   -2.000000
      O       31.80787029    0.00000000   15.90393514   -2.000000
      Mg      31.80787029    3.97598379   15.90393514    2.000000
      O       31.80787029    7.95196757   15.90393514   -2.000000
      Mg      31.80787029   11.92795136   15.90393514    2.000000
      O       31.80787029   15.90393514   15.90393514   -2.000000
      Mg      31.80787029   19.87991893   15.90393514    2.000000
      O       31.80787029   23.85590271   15.90393514   -2.000000
      Mg      31.80787029   27.83188650   15.90393514    2.000000
      O       31.80787029   31.80787029   15.90393514   -2.000000
      Mg      31.80787029   35.78385407   15.90393514    2.000000
      Mg      35.78385407    0.00000000   15.90393514    2.000000
      O       35.78385407    3.97598379   15.90393514   -2.000000
      Mg      35.78385407    7.95196757   15.90393514    2.000000
      O       35.78385407   11.92795136   15.90393514   -2.000000
      Mg      35.78385407   15.90393514   15.90393514    2.000000
      O       35.78385407   19.87991893   15.90393514   -2.000000
      Mg      35.78385407   23.85590271   15.90393514    2.000000
      O       35.78385407   27.83188650   15.90393514   -2.000000
      Mg      35.78385407   31.80787029   15.90393514    2.000000
      O       35.78385407   35.78385407   15.90393514   -2.000000
      O        0.00000000    0.00000000   15.90393514   -2.000000
      Mg       0.00000000    3.97598379   15.90393514    2.000000
      O        0.00000000    7.95196757   15.90393514   -2.000000
      Mg       0.00000000   11.92795136   15.90393514    2.000000
      O        0.00000000   15.90393514   15.90393514   -2.000000
      Mg       0.00000000   19.87991893   15.90393514    2.000000
      O        0.00000000   23.85590271   15.90393514   -2.000000
      Mg       0.00000000   27.83188650   15.90393514    2.000000
      O        0.00000000   31.80787029   15.90393514   -2.000000
      Mg       0.00000000   35.78385407   15.90393514    2.000000

 PC cluster transformed to the center of cell 0 (au): 
     Label               Cartesian Coordinates         Cell Indices
      O       11.92795136   19.87991893   15.90393514   0   0   0
      O       15.90393514   15.90393514   15.90393514   0   0   0
      Mg      15.90393514   19.87991893   15.90393514   0   0   0
      O       15.90393514   23.85590271   15.90393514   0   0   0
      O       19.87991893   11.92795136   15.90393514   0   0   0
      Mg      19.87991893   15.90393514   15.90393514   0   0   0
      O       19.87991893   19.87991893   15.90393514   0   0   0
      Mg      19.87991893   23.85590271   15.90393514   0   0   0
      O       19.87991893   27.83188650   15.90393514   0   0   0
      O       23.85590271   15.90393514   15.90393514   0   0   0
      Mg      23.85590271   19.87991893   15.90393514   0   0   0
      O       23.85590271   23.85590271   15.90393514   0   0   0
      O       27.83188650   19.87991893   15.90393514   0   0   0
      Mg      11.92795136   19.87991893   11.92795136   0   0   0
      Mg      15.90393514   15.90393514   11.92795136   0   0   0
      O       15.90393514   19.87991893   11.92795136   0   0   0
      Mg      15.90393514   23.85590271   11.92795136   0   0   0
      Mg      19.87991893   11.92795136   11.92795136   0   0   0
      O       19.87991893   15.90393514   11.92795136   0   0   0
      Mg      19.87991893   19.87991893   11.92795136   0   0   0
      O       19.87991893   23.85590271   11.92795136   0   0   0
      Mg      19.87991893   27.83188650   11.92795136   0   0   0
      Mg      23.85590271   15.90393514   11.92795136   0   0   0
      O       23.85590271   19.87991893   11.92795136   0   0   0
      Mg      23.85590271   23.85590271   11.92795136   0   0   0
      Mg      27.83188650   19.87991893   11.92795136   0   0   0
      O       19.87991893   19.87991893    7.95196757   0   0   0
      Mg      19.87991893   19.87991893    3.97598379   0   0   0
      MG       7.95196757   19.87991893   15.90393514   0   0   0
      MG      11.92795136   15.90393514   15.90393514   0   0   0
      MG      11.92795136   23.85590271   15.90393514   0   0   0
      MG      15.90393514   11.92795136   15.90393514   0   0   0
      MG      15.90393514   27.83188650   15.90393514   0   0   0
      MG      19.87991893    7.95196757   15.90393514   0   0   0
      MG      19.87991893   31.80787029   15.90393514   0   0   0
      MG      23.85590271   11.92795136   15.90393514   0   0   0
      MG      23.85590271   27.83188650   15.90393514   0   0   0
      MG      27.83188650   15.90393514   15.90393514   0   0   0
      MG      27.83188650   23.85590271   15.90393514   0   0   0
      MG      31.80787029   19.87991893   15.90393514   0   0   0
      MG      15.90393514   19.87991893    7.95196757   0   0   0
      MG      19.87991893   15.90393514    7.95196757   0   0   0
      MG      19.87991893   23.85590271    7.95196757   0   0   0
      MG      23.85590271   19.87991893    7.95196757   0   0   0

 QM cluster transformed to the center of cell 0 (au): 
          Atom               Cartesian Coordinates
           o f     11.92795135   19.87991892   15.90393513
           o f     15.90393514   15.90393513   15.90393513
           mg f    15.90393514   19.87991892   15.90393513
           o f     15.90393514   23.85590270   15.90393513
           o f     19.87991892   11.92795135   15.90393513
           mg f    19.87991892   15.90393513   15.90393513
           o f     19.87991892   19.87991892   15.90393513
           mg f    19.87991892   23.85590270   15.90393513
           o f     19.87991892   27.83188649   15.90393513
           o f     23.85590270   15.90393513   15.90393513
           mg f    23.85590270   19.87991892   15.90393513
           o f     23.85590270   23.85590270   15.90393513
           o f     27.83188649   19.87991892   15.90393513
           mg f    11.92795135   19.87991892   11.92795135
           mg f    15.90393514   15.90393513   11.92795135
           o f     15.90393514   19.87991892   11.92795135
           mg f    15.90393514   23.85590270   11.92795135
           mg f    19.87991892   11.92795135   11.92795135
           o f     19.87991892   15.90393513   11.92795135
           mg f    19.87991892   19.87991892   11.92795135
           o f     19.87991892   23.85590270   11.92795135
           mg f    19.87991892   27.83188649   11.92795135
           mg f    23.85590270   15.90393513   11.92795135
           o f     23.85590270   19.87991892   11.92795135
           mg f    23.85590270   23.85590270   11.92795135
           mg f    27.83188649   19.87991892   11.92795135
           o f     19.87991892   19.87991892    7.95196757
           mg f    19.87991892   19.87991892    3.97598378
           mg f     7.95196757   19.87991892   15.90393513
           mg f    11.92795135   15.90393513   15.90393513
           mg f    11.92795135   23.85590270   15.90393513
           mg f    15.90393514   11.92795135   15.90393513
           mg f    15.90393514   27.83188649   15.90393513
           mg f    19.87991892    7.95196757   15.90393513
           mg f    19.87991892   31.80787027   15.90393513
           mg f    23.85590270   11.92795135   15.90393513
           mg f    23.85590270   27.83188649   15.90393513
           mg f    27.83188649   15.90393513   15.90393513
           mg f    27.83188649   23.85590270   15.90393513
           mg f    31.80787027   19.87991892   15.90393513
           mg f    15.90393514   19.87991892    7.95196757
           mg f    19.87991892   15.90393513    7.95196757
           mg f    19.87991892   23.85590270    7.95196757
           mg f    23.85590270   19.87991892    7.95196757
           cu      19.88620357   19.87858943   19.89199427
           c       17.65658681   22.11609765   21.44488976
           o       16.34908163   23.43189782   22.58365417
           c       22.12358021   17.64968204   21.44594084
           o       23.43891886   16.34296206   22.58634595
  
 Extensions and centers of shell-pairs:
  number of shells with a single center:    25321
  number of shells with double centers:       950

 Size of the simulation box:     56.69178 a.u. 
 Radius of 1st FMM zone:        226.76714 a.u. 
 Radius of QM cluster:           44.53570 a.u. 
 Radius of PC cluster:           24.36991 a.u. 
 Final radius of 1st FMM zone:  226.76714 a.u. 

 # of cells of 1st FMM zone:        101
 # of PCs in 1st FMM zone:         1662

 1e-integral 1st. derivatives will be neglected if expon. factor < 0.113094E-13


 Unit cell Cartesian dipole moment (au): 
   x component:         0.00000
   y component:         0.00000
   z component:         0.00000

 Near-field electrostatic energy:      -688.0591372160
 Far-field electrostatic energy:       -527.2338698077

 setting up bound for integral derivative estimation

 increment for numerical differentiation : 0.00050000

 biggest AO integral is expected to be    17.830051868
 biggest cartesian 1st derivative AO integral is expected to be    62.393861433

 cpu time for 2e-integral derivative bound :      1.70 sec


 biggest 1-particle AO density matrix element is expected to be    2.5897209354

 core memory to be involved in 2e-gradient :
   symmetry shell pair data              :         1
   one and two particle density          :    393680
   derivative integrals                  :      8496
   ij-primitive data                     :       576
   derivative integral bound             :    123984
   totally                               :    526736


 setting up bound for integral derivative estimation

 increment for numerical differentiation : 0.00050000

 biggest AO integral is expected to be    17.830051868
 biggest cartesian 1st derivative AO integral is expected to be    62.393861433

 cpu time for 2e-integral derivative bound :      1.34 sec


 2e-integral 1st. derivatives will be neglected if expon. factor < 0.100000E-06
 outer boundary for 2e-integral derivative neglection is 0.248509E-08

          Overall gridpoints after grid construction =        363514

 Integrated ground state density     :   337.0043140783971    

 Integrated ground state spin density:  0.9999724836662074    


          ------------------------------------------------
           cartesian gradient of the energy (hartree/bohr)
          ------------------------------------------------

  ATOM      1 o           2 o           3 mg          4 o           5 o 
 dE/dx  0.0000000D+00 0.0000000D+00 0.0000000D+00 0.0000000D+00 0.0000000D+00
 dE/dy  0.0000000D+00 0.0000000D+00 0.0000000D+00 0.0000000D+00 0.0000000D+00
 dE/dz  0.0000000D+00 0.0000000D+00 0.0000000D+00 0.0000000D+00 0.0000000D+00

  ATOM      6 mg          7 o           8 mg          9 o          10 o 
 dE/dx  0.0000000D+00 0.0000000D+00 0.0000000D+00 0.0000000D+00 0.0000000D+00
 dE/dy  0.0000000D+00 0.0000000D+00 0.0000000D+00 0.0000000D+00 0.0000000D+00
 dE/dz  0.0000000D+00 0.0000000D+00 0.0000000D+00 0.0000000D+00 0.0000000D+00

  ATOM     11 mg         12 o          13 o          14 mg         15 mg
 dE/dx  0.0000000D+00 0.0000000D+00 0.0000000D+00 0.0000000D+00 0.0000000D+00
 dE/dy  0.0000000D+00 0.0000000D+00 0.0000000D+00 0.0000000D+00 0.0000000D+00
 dE/dz  0.0000000D+00 0.0000000D+00 0.0000000D+00 0.0000000D+00 0.0000000D+00

  ATOM     16 o          17 mg         18 mg         19 o          20 mg
 dE/dx  0.0000000D+00 0.0000000D+00 0.0000000D+00 0.0000000D+00 0.0000000D+00
 dE/dy  0.0000000D+00 0.0000000D+00 0.0000000D+00 0.0000000D+00 0.0000000D+00
 dE/dz  0.0000000D+00 0.0000000D+00 0.0000000D+00 0.0000000D+00 0.0000000D+00

  ATOM     21 o          22 mg         23 mg         24 o          25 mg
 dE/dx  0.0000000D+00 0.0000000D+00 0.0000000D+00 0.0000000D+00 0.0000000D+00
 dE/dy  0.0000000D+00 0.0000000D+00 0.0000000D+00 0.0000000D+00 0.0000000D+00
 dE/dz  0.0000000D+00 0.0000000D+00 0.0000000D+00 0.0000000D+00 0.0000000D+00

  ATOM     26 mg         27 o          28 mg         29 mg         30 mg
 dE/dx  0.0000000D+00 0.0000000D+00 0.0000000D+00 0.0000000D+00 0.0000000D+00
 dE/dy  0.0000000D+00 0.0000000D+00 0.0000000D+00 0.0000000D+00 0.0000000D+00
 dE/dz  0.0000000D+00 0.0000000D+00 0.0000000D+00 0.0000000D+00 0.0000000D+00

  ATOM     31 mg         32 mg         33 mg         34 mg         35 mg
 dE/dx  0.0000000D+00 0.0000000D+00 0.0000000D+00 0.0000000D+00 0.0000000D+00
 dE/dy  0.0000000D+00 0.0000000D+00 0.0000000D+00 0.0000000D+00 0.0000000D+00
 dE/dz  0.0000000D+00 0.0000000D+00 0.0000000D+00 0.0000000D+00 0.0000000D+00

  ATOM     36 mg         37 mg         38 mg         39 mg         40 mg
 dE/dx  0.0000000D+00 0.0000000D+00 0.0000000D+00 0.0000000D+00 0.0000000D+00
 dE/dy  0.0000000D+00 0.0000000D+00 0.0000000D+00 0.0000000D+00 0.0000000D+00
 dE/dz  0.0000000D+00 0.0000000D+00 0.0000000D+00 0.0000000D+00 0.0000000D+00

  ATOM     41 mg         42 mg         43 mg         44 mg         45 cu
 dE/dx  0.0000000D+00 0.0000000D+00 0.0000000D+00 0.0000000D+00 0.1280910D-04
 dE/dy  0.0000000D+00 0.0000000D+00 0.0000000D+00 0.0000000D+00-0.2610911D-04
 dE/dz  0.0000000D+00 0.0000000D+00 0.0000000D+00 0.0000000D+00-0.4032360D-05

  ATOM     46 c          47 o          48 c          49 o 
 dE/dx  0.1834796D-04 0.1948555D-04-0.3896185D-04 0.7463862D-04
 dE/dy -0.3616627D-04 0.1958545D-04 0.3731517D-04-0.5178451D-04
 dE/dz -0.1922328D-04-0.1814809D-04-0.2239255D-04 0.6717500D-04
 
 resulting FORCE  (fx,fy,fz) = (0.863D-04,-.572D-04,0.338D-05)
 resulting MOMENT (mx,my,mz) = (0.994D-03,0.159D-02,-.265D-02)


 exx =       0.001442 eyy =      -0.001048 ezz =       0.000135
 eyz =      -0.000725 exz =       0.001144 exy =       0.000325


 **********************************************************************
  |maximum component of gradient| : 0.74638619E-04  (atom 49 o )       
   gradient norm                  : 0.14193570E-03
 **********************************************************************
   ***  cartesian gradients written onto <gradient>  ***


     --- calculation of the energy gradient finished ---



    ------------------------------------------------------------------------
         total  cpu-time :  5 minutes and 27 seconds
         total wall-time :  8 minutes and 22 seconds
    ------------------------------------------------------------------------


   ****  rdgrad : all done  ****


    2010-09-10 14:49:52.451 

fine, there is no data group "$actual step"
next step = relax
 operating system is UNIX !
 hostname is         hexa29

 statpt(hexa29) : TURBOMOLE V6.1 22 Sep 2009 at 17:26:03
 Copyright (C) 2009 TURBOMOLE GmbH, Karlsruhe


    2010-09-10 14:49:52.659 



                           this is S T A T P T   


                     hessian and coordinate update for
                          stationary point search 

                     by barbara unterreiner, marek sierka,
                           and reinhart ahlrichs

                          quantum chemistry group
                          universitaet  karlsruhe
                                  germany


  Keyword $statpt not found - using default options

 i/o-error : input variable is not real 


 WARNING : <rdebbs> could not read properly from string 
zability       6.0000000                                                        

 
        ***************  Stationary point options ******************
        ************************************************************
           Maximum allowed trust radius:           3.000000E-01
           Minimum allowed trust radius:           1.000000E-03
           Initial trust radius:                   1.500000E-01
           GDIIS used if gradient norm <           1.000000E-02
           Number of previous steps for GDIIS:       5
           Hessian update method:                  BFGS
                        *** Convergence criteria ***                
           Threshold for energy change:            1.000000E-06
           Threshold for max displacement element: 1.000000E-03
           Threshold for max gradient element :    1.000000E-03
           Threshold for RMS of displacement:      5.000000E-04
           Threshold for RMS of gradient:          5.000000E-04
        ************************************************************
 
  *************************************************************************
   ATOM                      CARTESIAN COORDINATES
    1 o       7.95196756718279     19.87991891795697     15.90393513436557
    2 o      11.92795135077418     15.90393513436557     15.90393513436557
    3 mg     11.92795135077418     19.87991891795697     15.90393513436557
    4 o      11.92795135077418     23.85590270154836     15.90393513436557
    5 o      15.90393513436557     11.92795135077418     15.90393513436557
    6 mg     15.90393513436557     15.90393513436557     15.90393513436557
    7 o      15.90393513436557     19.87991891795697     15.90393513436557
    8 mg     15.90393513436557     23.85590270154836     15.90393513436557
    9 o      15.90393513436557     27.83188648513975     15.90393513436557
   10 o      19.87991891795697     15.90393513436557     15.90393513436557
   11 mg     19.87991891795697     19.87991891795697     15.90393513436557
   12 o      19.87991891795697     23.85590270154836     15.90393513436557
   13 o      23.85590270154836     19.87991891795697     15.90393513436557
   14 mg      7.95196756718279     19.87991891795697     11.92795135077418
   15 mg     11.92795135077418     15.90393513436557     11.92795135077418
   16 o      11.92795135077418     19.87991891795697     11.92795135077418
   17 mg     11.92795135077418     23.85590270154836     11.92795135077418
   18 mg     15.90393513436557     11.92795135077418     11.92795135077418
   19 o      15.90393513436557     15.90393513436557     11.92795135077418
   20 mg     15.90393513436557     19.87991891795697     11.92795135077418
   21 o      15.90393513436557     23.85590270154836     11.92795135077418
   22 mg     15.90393513436557     27.83188648513975     11.92795135077418
   23 mg     19.87991891795697     15.90393513436557     11.92795135077418
   24 o      19.87991891795697     19.87991891795697     11.92795135077418
   25 mg     19.87991891795697     23.85590270154836     11.92795135077418
   26 mg     23.85590270154836     19.87991891795697     11.92795135077418
   27 o      15.90393513436557     19.87991891795697      7.95196756718279
   28 mg     15.90393513436557     19.87991891795697      3.97598378359139
   29 mg      3.97598378359139     19.87991891795697     15.90393513436557
   30 mg      7.95196756718279     15.90393513436557     15.90393513436557
   31 mg      7.95196756718279     23.85590270154836     15.90393513436557
   32 mg     11.92795135077418     11.92795135077418     15.90393513436557
   33 mg     11.92795135077418     27.83188648513975     15.90393513436557
   34 mg     15.90393513436557      7.95196756718279     15.90393513436557
   35 mg     15.90393513436557     31.80787026873115     15.90393513436557
   36 mg     19.87991891795697     11.92795135077418     15.90393513436557
   37 mg     19.87991891795697     27.83188648513975     15.90393513436557
   38 mg     23.85590270154836     15.90393513436557     15.90393513436557
   39 mg     23.85590270154836     23.85590270154836     15.90393513436557
   40 mg     27.83188648513975     19.87991891795697     15.90393513436557
   41 mg     11.92795135077418     19.87991891795697      7.95196756718279
   42 mg     15.90393513436557     15.90393513436557      7.95196756718279
   43 mg     15.90393513436557     23.85590270154836      7.95196756718279
   44 mg     19.87991891795697     19.87991891795697      7.95196756718279
   45 cu     15.91021978528181     19.87858943433802     19.89199426784741
   46 c      13.68060302258196     22.11609765232105     21.44488975811579
   47 o      12.37309784854393     23.43189782236488     22.58365417283499
   48 c      18.14759642075206     17.64968204210660     21.44594084042909
   49 o      19.46293507580224     16.34296205678833     22.58634594992268
  *************************************************************************
   ATOM                      CARTESIAN GRADIENTS  
    1 o       0.00000000000000      0.00000000000000      0.00000000000000
    2 o       0.00000000000000      0.00000000000000      0.00000000000000
    3 mg      0.00000000000000      0.00000000000000      0.00000000000000
    4 o       0.00000000000000      0.00000000000000      0.00000000000000
    5 o       0.00000000000000      0.00000000000000      0.00000000000000
    6 mg      0.00000000000000      0.00000000000000      0.00000000000000
    7 o       0.00000000000000      0.00000000000000      0.00000000000000
    8 mg      0.00000000000000      0.00000000000000      0.00000000000000
    9 o       0.00000000000000      0.00000000000000      0.00000000000000
   10 o       0.00000000000000      0.00000000000000      0.00000000000000
   11 mg      0.00000000000000      0.00000000000000      0.00000000000000
   12 o       0.00000000000000      0.00000000000000      0.00000000000000
   13 o       0.00000000000000      0.00000000000000      0.00000000000000
   14 mg      0.00000000000000      0.00000000000000      0.00000000000000
   15 mg      0.00000000000000      0.00000000000000      0.00000000000000
   16 o       0.00000000000000      0.00000000000000      0.00000000000000
   17 mg      0.00000000000000      0.00000000000000      0.00000000000000
   18 mg      0.00000000000000      0.00000000000000      0.00000000000000
   19 o       0.00000000000000      0.00000000000000      0.00000000000000
   20 mg      0.00000000000000      0.00000000000000      0.00000000000000
   21 o       0.00000000000000      0.00000000000000      0.00000000000000
   22 mg      0.00000000000000      0.00000000000000      0.00000000000000
   23 mg      0.00000000000000      0.00000000000000      0.00000000000000
   24 o       0.00000000000000      0.00000000000000      0.00000000000000
   25 mg      0.00000000000000      0.00000000000000      0.00000000000000
   26 mg      0.00000000000000      0.00000000000000      0.00000000000000
   27 o       0.00000000000000      0.00000000000000      0.00000000000000
   28 mg      0.00000000000000      0.00000000000000      0.00000000000000
   29 mg      0.00000000000000      0.00000000000000      0.00000000000000
   30 mg      0.00000000000000      0.00000000000000      0.00000000000000
   31 mg      0.00000000000000      0.00000000000000      0.00000000000000
   32 mg      0.00000000000000      0.00000000000000      0.00000000000000
   33 mg      0.00000000000000      0.00000000000000      0.00000000000000
   34 mg      0.00000000000000      0.00000000000000      0.00000000000000
   35 mg      0.00000000000000      0.00000000000000      0.00000000000000
   36 mg      0.00000000000000      0.00000000000000      0.00000000000000
   37 mg      0.00000000000000      0.00000000000000      0.00000000000000
   38 mg      0.00000000000000      0.00000000000000      0.00000000000000
   39 mg      0.00000000000000      0.00000000000000      0.00000000000000
   40 mg      0.00000000000000      0.00000000000000      0.00000000000000
   41 mg      0.00000000000000      0.00000000000000      0.00000000000000
   42 mg      0.00000000000000      0.00000000000000      0.00000000000000
   43 mg      0.00000000000000      0.00000000000000      0.00000000000000
   44 mg      0.00000000000000      0.00000000000000      0.00000000000000
   45 cu      0.00001280910027     -0.00002610910900     -0.00000403236024
   46 c       0.00001834796163     -0.00003616627138     -0.00001922328414
   47 o       0.00001948555312      0.00001958544559     -0.00001814809433
   48 c      -0.00003896185096      0.00003731516690     -0.00002239255151
   49 o       0.00007463861856     -0.00005178450870      0.00006717499698
  *************************************************************************

  norm of actual CARTESIAN gradient:  1.41936E-04

  ENERGY =   -5792.0242270730 a.u.; # of cycle =   49

  Approximate Hessian read from $hessapprox data section

  Hessian updated according to BFGS formula

  Number of frozen atoms:    44
  Number of zero Hessian eigenvalues: 132
  Number of structures for GDIIS interpolation:    5
  GDIIS step:     0.001195

      ****************************************************************** 
                          CONVERGENCE INFORMATION

                               Converged?     Value      Criterion
             Energy change         yes      0.0000001   0.0000010
             RMS of displacement   yes      0.0000986   0.0005000
             RMS of gradient       yes      0.0000117   0.0005000
             MAX displacement      yes      0.0006761   0.0010000
             MAX gradient          yes      0.0000746   0.0010000
      ****************************************************************** 


    ------------------------------------------------------------------------
         total  cpu-time :   0.11 seconds
         total wall-time :   0.72 seconds
    ------------------------------------------------------------------------


   ****  statpt : all done  ****


    2010-09-10 14:49:53.294 

fine, there is no data group "$actual step"
next step = ridft
 operating system is UNIX !
 hostname is         hexa29

 ridft(hexa29) : TURBOMOLE V6.1 22 Sep 2009 at 17:26:03
 Copyright (C) 2009 TURBOMOLE GmbH, Karlsruhe


    2010-09-10 14:49:53.504 



                                  r i d f t

                        DFT program with RI approximation 
                                for coulomb part 




                                                 
                                 References:     
                                                 
          TURBOMOLE:                             
              R. Ahlrichs, M. Baer, M. Haeser, H. Horn, and
              C. Koelmel
              Electronic structure calculations on workstation
              computers: the program system TURBOMOLE
              Chem. Phys. Lett. 162: 165 (1989)
          Density Functional:                              
              O. Treutler and R. Ahlrichs                      
              Efficient Molecular Numerical Integration Schemes
              J. Chem. Phys. 102: 346 (1995)                   
          Parallel Version:                                
              Performance of parallel TURBOMOLE for Density    
              Functional Calculations                          
              M. v. Arnim and R. Ahlrichs                      
              J. Comp. Chem. 19: 1746 (1998)                   
          RI-J Method:                                     
              Auxiliary Basis Sets to approximate Coulomb      
              Potentials                                       
              Chem. Phys. Lett. 240: 283 (1995)                
              K. Eichkorn, O. Treutler, H. Oehm, M. Haeser     
              and R. Ahlrichs                                  
              Chem. Phys. Lett. 242: 652 (1995)                
                                                           
              Auxiliary Basis Sets for Main Row Atoms and their
              Use to approximate Coulomb Potentials            
              K. Eichkorn, F. Weigend, O. Treutler and         
              R. Ahlrichs                                      
              Theo. Chem. Acc. 97: 119 (1997)                   
                                                           
              Accurate Coulomb-fitting basis sets for H to Rn 
              F. Weigend                                        
              Phys. Chem. Chem. Phys. 8: 1057 (2006)            
                                                           
          Multipole accelerated RI-J (MARI-J):             
              Fast evaluation of the Coulomb potential for     
              electron densities using multipole accelerated   
              resolution of identity approximation             
              M. Sierka, A. Hogekamp and R. Ahlrichs           
              J. Chem. Phys. 118: 9136 (2003)                  
          RI-JK Method:                                     
[...]
      O       23.85590271    0.00000000   15.90393514   -2.000000
      Mg      23.85590271    3.97598379   15.90393514    2.000000
      O       23.85590271    7.95196757   15.90393514   -2.000000
      Mg      23.85590271   11.92795136   15.90393514    2.000000
      O       23.85590271   15.90393514   15.90393514   -2.000000
      Mg      23.85590271   19.87991893   15.90393514    2.000000
      O       23.85590271   23.85590271   15.90393514   -2.000000
      Mg      23.85590271   27.83188650   15.90393514    2.000000
      O       23.85590271   31.80787029   15.90393514   -2.000000
      Mg      23.85590271   35.78385407   15.90393514    2.000000
      Mg      27.83188650    0.00000000   15.90393514    2.000000
      O       27.83188650    3.97598379   15.90393514   -2.000000
      Mg      27.83188650    7.95196757   15.90393514    2.000000
      O       27.83188650   11.92795136   15.90393514   -2.000000
      Mg      27.83188650   15.90393514   15.90393514    2.000000
      O       27.83188650   19.87991893   15.90393514   -2.000000
      Mg      27.83188650   23.85590271   15.90393514    2.000000
      O       27.83188650   27.83188650   15.90393514   -2.000000
      Mg      27.83188650   31.80787029   15.90393514    2.000000
      O       27.83188650   35.78385407   15.90393514   -2.000000
      O       31.80787029    0.00000000   15.90393514   -2.000000
      Mg      31.80787029    3.97598379   15.90393514    2.000000
      O       31.80787029    7.95196757   15.90393514   -2.000000
      Mg      31.80787029   11.92795136   15.90393514    2.000000
      O       31.80787029   15.90393514   15.90393514   -2.000000
      Mg      31.80787029   19.87991893   15.90393514    2.000000
      O       31.80787029   23.85590271   15.90393514   -2.000000
      Mg      31.80787029   27.83188650   15.90393514    2.000000
      O       31.80787029   31.80787029   15.90393514   -2.000000
      Mg      31.80787029   35.78385407   15.90393514    2.000000
      Mg      35.78385407    0.00000000   15.90393514    2.000000
      O       35.78385407    3.97598379   15.90393514   -2.000000
      Mg      35.78385407    7.95196757   15.90393514    2.000000
      O       35.78385407   11.92795136   15.90393514   -2.000000
      Mg      35.78385407   15.90393514   15.90393514    2.000000
      O       35.78385407   19.87991893   15.90393514   -2.000000
      Mg      35.78385407   23.85590271   15.90393514    2.000000
      O       35.78385407   27.83188650   15.90393514   -2.000000
      Mg      35.78385407   31.80787029   15.90393514    2.000000
      O       35.78385407   35.78385407   15.90393514   -2.000000
      O        0.00000000    0.00000000   15.90393514   -2.000000
      Mg       0.00000000    3.97598379   15.90393514    2.000000
      O        0.00000000    7.95196757   15.90393514   -2.000000
      Mg       0.00000000   11.92795136   15.90393514    2.000000
      O        0.00000000   15.90393514   15.90393514   -2.000000
      Mg       0.00000000   19.87991893   15.90393514    2.000000
      O        0.00000000   23.85590271   15.90393514   -2.000000
      Mg       0.00000000   27.83188650   15.90393514    2.000000
      O        0.00000000   31.80787029   15.90393514   -2.000000
      Mg       0.00000000   35.78385407   15.90393514    2.000000

 PC cluster transformed to the center of cell 0 (au): 
     Label               Cartesian Coordinates         Cell Indices
      O       11.92795136   19.87991893   15.90393514   0   0   0
      O       15.90393514   15.90393514   15.90393514   0   0   0
      Mg      15.90393514   19.87991893   15.90393514   0   0   0
      O       15.90393514   23.85590271   15.90393514   0   0   0
      O       19.87991893   11.92795136   15.90393514   0   0   0
      Mg      19.87991893   15.90393514   15.90393514   0   0   0
      O       19.87991893   19.87991893   15.90393514   0   0   0
      Mg      19.87991893   23.85590271   15.90393514   0   0   0
      O       19.87991893   27.83188650   15.90393514   0   0   0
      O       23.85590271   15.90393514   15.90393514   0   0   0
      Mg      23.85590271   19.87991893   15.90393514   0   0   0
      O       23.85590271   23.85590271   15.90393514   0   0   0
      O       27.83188650   19.87991893   15.90393514   0   0   0
      Mg      11.92795136   19.87991893   11.92795136   0   0   0
      Mg      15.90393514   15.90393514   11.92795136   0   0   0
      O       15.90393514   19.87991893   11.92795136   0   0   0
      Mg      15.90393514   23.85590271   11.92795136   0   0   0
      Mg      19.87991893   11.92795136   11.92795136   0   0   0
      O       19.87991893   15.90393514   11.92795136   0   0   0
      Mg      19.87991893   19.87991893   11.92795136   0   0   0
      O       19.87991893   23.85590271   11.92795136   0   0   0
      Mg      19.87991893   27.83188650   11.92795136   0   0   0
      Mg      23.85590271   15.90393514   11.92795136   0   0   0
      O       23.85590271   19.87991893   11.92795136   0   0   0
      Mg      23.85590271   23.85590271   11.92795136   0   0   0
      Mg      27.83188650   19.87991893   11.92795136   0   0   0
      O       19.87991893   19.87991893    7.95196757   0   0   0
      Mg      19.87991893   19.87991893    3.97598379   0   0   0
      MG       7.95196757   19.87991893   15.90393514   0   0   0
      MG      11.92795136   15.90393514   15.90393514   0   0   0
      MG      11.92795136   23.85590271   15.90393514   0   0   0
      MG      15.90393514   11.92795136   15.90393514   0   0   0
      MG      15.90393514   27.83188650   15.90393514   0   0   0
      MG      19.87991893    7.95196757   15.90393514   0   0   0
      MG      19.87991893   31.80787029   15.90393514   0   0   0
      MG      23.85590271   11.92795136   15.90393514   0   0   0
      MG      23.85590271   27.83188650   15.90393514   0   0   0
      MG      27.83188650   15.90393514   15.90393514   0   0   0
      MG      27.83188650   23.85590271   15.90393514   0   0   0
      MG      31.80787029   19.87991893   15.90393514   0   0   0
      MG      15.90393514   19.87991893    7.95196757   0   0   0
      MG      19.87991893   15.90393514    7.95196757   0   0   0
      MG      19.87991893   23.85590271    7.95196757   0   0   0
      MG      23.85590271   19.87991893    7.95196757   0   0   0

 QM cluster transformed to the center of cell 0 (au): 
          Atom               Cartesian Coordinates
           o f     11.92795135   19.87991892   15.90393513
           o f     15.90393514   15.90393513   15.90393513
           mg f    15.90393514   19.87991892   15.90393513
           o f     15.90393514   23.85590270   15.90393513
           o f     19.87991892   11.92795135   15.90393513
           mg f    19.87991892   15.90393513   15.90393513
           o f     19.87991892   19.87991892   15.90393513
           mg f    19.87991892   23.85590270   15.90393513
           o f     19.87991892   27.83188649   15.90393513
           o f     23.85590270   15.90393513   15.90393513
           mg f    23.85590270   19.87991892   15.90393513
           o f     23.85590270   23.85590270   15.90393513
           o f     27.83188649   19.87991892   15.90393513
           mg f    11.92795135   19.87991892   11.92795135
           mg f    15.90393514   15.90393513   11.92795135
           o f     15.90393514   19.87991892   11.92795135
           mg f    15.90393514   23.85590270   11.92795135
           mg f    19.87991892   11.92795135   11.92795135
           o f     19.87991892   15.90393513   11.92795135
           mg f    19.87991892   19.87991892   11.92795135
           o f     19.87991892   23.85590270   11.92795135
           mg f    19.87991892   27.83188649   11.92795135
           mg f    23.85590270   15.90393513   11.92795135
           o f     23.85590270   19.87991892   11.92795135
           mg f    23.85590270   23.85590270   11.92795135
           mg f    27.83188649   19.87991892   11.92795135
           o f     19.87991892   19.87991892    7.95196757
           mg f    19.87991892   19.87991892    3.97598378
           mg f     7.95196757   19.87991892   15.90393513
           mg f    11.92795135   15.90393513   15.90393513
           mg f    11.92795135   23.85590270   15.90393513
           mg f    15.90393514   11.92795135   15.90393513
           mg f    15.90393514   27.83188649   15.90393513
           mg f    19.87991892    7.95196757   15.90393513
           mg f    19.87991892   31.80787027   15.90393513
           mg f    23.85590270   11.92795135   15.90393513
           mg f    23.85590270   27.83188649   15.90393513
           mg f    27.83188649   15.90393513   15.90393513
           mg f    27.83188649   23.85590270   15.90393513
           mg f    31.80787027   19.87991892   15.90393513
           mg f    15.90393514   19.87991892    7.95196757
           mg f    19.87991892   15.90393513    7.95196757
           mg f    19.87991892   23.85590270    7.95196757
           mg f    23.85590270   19.87991892    7.95196757
           cu      19.88635489   19.87872736   19.89199790
           c       17.65690952   22.11654603   21.44476100
           o       16.34921440   23.43223838   22.58347085
           c       22.12352134   17.64949119   21.44579961
           o       23.43833095   16.34228591   22.58615826
  
 Extensions and centers of shell-pairs:
  number of shells with a single center:    25322
  number of shells with double centers:       950

 Size of the simulation box:     56.69178 a.u. 
 Radius of 1st FMM zone:        226.76714 a.u. 
 Radius of QM cluster:           44.53570 a.u. 
 Radius of PC cluster:           24.36991 a.u. 
 Final radius of 1st FMM zone:  226.76714 a.u. 

 # of cells of 1st FMM zone:        101
 # of PCs in 1st FMM zone:         1662

 1e-integrals will be neglected if expon. factor < 0.564521E-12

 Unit cell Cartesian dipole moment (au): 
   x component:         0.00000
   y component:         0.00000
   z component:         0.00000

 Near-field electrostatic energy:      -688.0595857931
 Far-field electrostatic energy:       -527.2339271862
 Total electrostatic energy:           7035.7786342939
 
   Difference densities algorithm switched on.
   The maximal number of linear combinations of
   difference densities is          20 .

 automatic virtual orbital shift switched on 
      shift if e(lumo)-e(homo) < 0.10000000    


 DIIS switched on: error vector is FDS-SDF
 Max. Iterations for DIIS is     :   4
 DIIS matrix (see manual) 
    Scaling factor of diagonals  :  1.200
    threshold for scaling factor :  0.000

 scf convergence criterion : increment of total energy < .1000000D-06
                  and increment of one-electron energy < .1000000D-03

  MOs are in ASCII format !


 reading orbital data $uhfmo_alpha  from file alpha . 

 orbital characterization : scfconv=7
 

 reading orbital data $uhfmo_beta  from file beta . 

 orbital characterization : scfconv=7
 

 DSCF restart information will be dumped onto file alpha


 Starting SCF iterations

          Overall gridpoints after grid construction =        115816

 ITERATION  ENERGY          1e-ENERGY        2e-ENERGY     NORM[dD(SAO)]  TOL
   1  -5792.0650106065    -22199.620250     9371.7766051    0.000D+00 0.563D-11
                            Exc = -361.094492475     Coul =  9819.73867336    
                            exK = -86.8675758335    
                         Ntotal = 337.24703982      Nspin = 1.0007422963    
                             Na = 169.12389106         Nb = 168.12314876    
                            current damping = 0.700
 
          max. resid. norm for Fia-block=  1.285D-04 for orbital    118a    alpha
          max. resid. fock norm         =  3.857D-04 for orbital    538a    beta 

 ITERATION  ENERGY          1e-ENERGY        2e-ENERGY     NORM[dD(SAO)]  TOL
   2  -5792.0650106836    -22199.620816     9371.7771710    0.332D-03 0.357D-11
                            Exc = -361.094514155      Eck =  9732.87168515    
                         Ntotal = 337.24703985      Nspin = 1.0007423023    
                             Na = 169.12389107         Nb = 168.12314877    
                            current damping = 0.700
 
          Norm of current diis error: 0.24760E-03
          max. resid. norm for Fia-block=  5.787D-05 for orbital    118a    alpha
          max. resid. fock norm         =  1.576D-04 for orbital    538a    beta 

 ITERATION  ENERGY          1e-ENERGY        2e-ENERGY     NORM[dD(SAO)]  TOL
   3  -5792.0650106961    -22199.619281     9371.7756365    0.695D-04 0.271D-11
                            Exc = -361.094457965      Eck =  9732.87009442    
                         Ntotal = 337.24703988      Nspin = 1.0007423105    
                             Na = 169.12389109         Nb = 168.12314878    
                            current damping = 0.750
 
          Norm of current diis error: 0.13942E-03
          max. resid. norm for Fia-block=  2.488D-05 for orbital    118a    alpha
          max. resid. fock norm         =  6.543D-05 for orbital    538a    alpha

 ITERATION  ENERGY          1e-ENERGY        2e-ENERGY     NORM[dD(SAO)]  TOL
   4  -5792.0650107055    -22199.622671     9371.7790256    0.796D-04 0.254D-11
                            Exc = -361.094571732      Eck =  9732.87359732    
                         Ntotal = 337.24703987      Nspin = 1.0007423094    
                             Na = 169.12389109         Nb = 168.12314878    
                            current damping = 0.800
 
          Norm of current diis error: 0.15773E-03
          max. resid. norm for Fia-block=  1.083D-05 for orbital    118a    alpha
          max. resid. fock norm         =  2.797D-05 for orbital    538a    alpha

 ITERATION  ENERGY          1e-ENERGY        2e-ENERGY     NORM[dD(SAO)]  TOL
   5  -5792.0650107058    -22199.620832     9371.7771872    0.252D-04 0.235D-11
                            Exc = -361.094515403      Eck =  9732.87170262    
                         Ntotal = 337.24703988      Nspin = 1.0007423114    
                             Na = 169.12389110         Nb = 168.12314879    
                            current damping = 0.850
 
          Norm of current diis error: 0.39403E-04
          max. resid. norm for Fia-block=  5.977D-06 for orbital    169a    alpha
          max. resid. fock norm         =  1.445D-05 for orbital    538a    alpha
          mo-orthogonalization: Cholesky decomposition

 ENERGY CONVERGED !

          Overall gridpoints after grid construction =        363514

 ITERATION  ENERGY          1e-ENERGY        2e-ENERGY     NORM[dD(SAO)]  TOL
   6  -5792.0242271202    -22199.620623     9371.8177611    0.171D-04 0.223D-11
                            Exc = -361.053718988      Eck =  9732.87148010    
                         Ntotal = 337.00431428      Nspin =0.99997247423    
                             Na = 169.00214338         Nb = 168.00217091    
                            current damping = 0.900
 
          Norm of current diis error: 0.21086E-04
          max. resid. norm for Fia-block=  2.929D-06 for orbital    169a    alpha
          max. resid. fock norm         =  5.961D-06 for orbital    519a    alpha

 End of SCF iterations

   convergence criteria satisfied after    6 iterations


                  ------------------------------------------ 
                 |  total energy      =  -5792.02422712024  |
                  ------------------------------------------ 
                 :  kinetic energy    =   5703.10914094719  :
                 :  potential energy  = -11495.13336806743  :
                 :  virial theorem    =      1.98464870265  :
                 :  wavefunction norm =      1.00000000000  :
                  .......................................... 


 orbitals $uhfmo_beta  will be written to file beta

 orbitals $uhfmo_alpha  will be written to file alpha
 
 alpha: 

    irrep                165a        166a        167a        168a        169a   
 eigenvalues H         -0.21925    -0.21669    -0.21631    -0.21539    -0.11653
            eV          -5.9660     -5.8965     -5.8862     -5.8612     -3.1709
 occupation              1.0000      1.0000      1.0000      1.0000      1.0000 

    irrep                170a        171a        172a        173a        174a   
 eigenvalues H         -0.03400    -0.02878     0.00005     0.03812     0.04426
            eV          -0.9253     -0.7831      0.0013      1.0373      1.2044
 
 beta:  

    irrep                164a        165a        166a        167a        168a   
 eigenvalues H         -0.22014    -0.21912    -0.21649    -0.21618    -0.21523
            eV          -5.9903     -5.9625     -5.8909     -5.8825     -5.8567
 occupation              1.0000      1.0000      1.0000      1.0000      1.0000 

    irrep                169a        170a        171a        172a        173a   
 eigenvalues H         -0.05047    -0.02975     0.00480     0.00751     0.04278
            eV          -1.3733     -0.8095      0.1305      0.2044      1.1640
 

                                             _ _ _ 
  IRREP     alpha occ.     beta occ.      tr(D*D-D)


 a        169.00000000   168.00000000    -0.25181586

   -------------------------------------------------

   sum    169.00000000   168.00000000    -0.25181586

 <S*S>     0.75363172

 
    +------------------------ Parameters ------------------------+
    -------------------------------------------------------------
      Maximum multipole moment used               : 25
      Multipole precision parameter               :  1.0000E-08
      Minimum separation between cells            :  3.0000E+00
    +-----------------------------------------------------------+
 
 entered section...
 
 
 
 ==============================================================================
                           electrostatic moments
 ==============================================================================
 
              nuc           elec       ->  total
 ------------------------------------------------------------------------------
                          charge      
 ------------------------------------------------------------------------------
         369.000000    -337.000000      32.000000
 a-b                                     1.000000
 
 ------------------------------------------------------------------------------
                       dipole moment  
 ------------------------------------------------------------------------------
   x    5869.083926   -5360.161253     508.922673
   y    7335.810213   -6699.654426     636.155787
   z    5330.591470   -4934.784276     395.807194
 
   | dipole moment | =   905.7372 a.u. =  2302.1716 debye 
 
 ------------------------------------------------------------------------------
                     quadrupole moment
 ------------------------------------------------------------------------------
  xx   99301.909386  -90089.069841    9212.839546
  yy  151789.675866 -138023.965309   13765.710556
  zz   82697.785258  -77544.228852    5153.556406
  xy  116417.921146 -106297.554239   10120.366907
  xz   84788.839695  -78494.022487    6294.817208
  yz  105974.399924  -98105.819122    7868.580801
 
     1/3  trace=    9377.368836
     anisotropy=   25837.398246
 
 ==============================================================================
 


    ------------------------------------------------------------------------
         total  cpu-time :  8 minutes and  6 seconds
         total wall-time : 12 minutes and 43 seconds
    ------------------------------------------------------------------------


   ****  ridft : all done  ****


    2010-09-10 15:02:35.970 

fine, there is no data group "$actual step"
next step = rdgrad
 energy change  : actual value =  -0.1090E-06 threshold =   0.1000E-05
 geom. gradient : actual value =   0.7464E-04 threshold =   0.1000E-02

CONVERGENCY CRITERIA FULFILLED IN CYCLE 49

